   2   2   1   0
  0.1968300E+02  0.3818377E-09  0.3818377E-09  0.3818377E-09  0.5000000E-15
   1.0000000000000000E-004
  CAR 
 Si diamond structure                    
     17.38019226     -7.19276362 1001      6.07119014      1.00000000
     -7.193  0.0000E+00  0.0000E+00
     -7.168  0.0000E+00  0.0000E+00
     -7.144  0.0000E+00  0.0000E+00
     -7.119  0.0000E+00  0.0000E+00
     -7.094  0.0000E+00  0.0000E+00
     -7.070  0.0000E+00  0.0000E+00
     -7.045  0.0000E+00  0.0000E+00
     -7.021  0.0000E+00  0.0000E+00
     -6.996  0.0000E+00  0.0000E+00
     -6.972  0.0000E+00  0.0000E+00
     -6.947  0.0000E+00  0.0000E+00
     -6.922  0.0000E+00  0.0000E+00
     -6.898 -0.3161E-28 -0.7768E-30
     -6.873 -0.1872E-26 -0.4679E-28
     -6.849 -0.8637E-25 -0.2169E-26
     -6.824 -0.3534E-23 -0.8902E-25
     -6.800 -0.1280E-21 -0.3235E-23
     -6.775 -0.4106E-20 -0.1041E-21
     -6.750 -0.1166E-18 -0.2968E-20
     -6.726 -0.2929E-17 -0.7493E-19
     -6.701 -0.6511E-16 -0.1675E-17
     -6.677 -0.1281E-14 -0.3315E-16
     -6.652 -0.2161E-13 -0.5643E-15
     -6.628 -0.3321E-12 -0.8726E-14
     -6.603 -0.4504E-11 -0.1194E-12
     -6.578 -0.5399E-10 -0.1446E-11
     -6.554 -0.5716E-09 -0.1549E-10
     -6.529 -0.5341E-08 -0.1467E-09
     -6.505 -0.4403E-07 -0.1229E-08
     -6.480 -0.3199E-06 -0.9089E-08
     -6.456 -0.2047E-05 -0.5938E-07
     -6.431 -0.1152E-04 -0.3424E-06
     -6.406 -0.5691E-04 -0.1741E-05
     -6.382 -0.2465E-03 -0.7797E-05
     -6.357 -0.9326E-03 -0.3071E-04
     -6.333 -0.3071E-02 -0.1062E-03
     -6.308 -0.8749E-02 -0.3212E-03
     -6.284 -0.2135E-01 -0.8458E-03
     -6.259 -0.4388E-01 -0.1924E-02
     -6.234 -0.7339E-01 -0.3727E-02
     -6.210 -0.9141E-01 -0.5974E-02
     -6.185 -0.5641E-01 -0.7360E-02
     -6.161  0.8951E-01 -0.5160E-02
     -6.136  0.3905E+00  0.4435E-02
     -6.112  0.8342E+00  0.2493E-01
     -6.087  0.1329E+01  0.5760E-01
     -6.062  0.1735E+01  0.1002E+00
     -6.038  0.1931E+01  0.1477E+00
     -6.013  0.1887E+01  0.1940E+00
     -5.989  0.1666E+01  0.2350E+00
     -5.964  0.1380E+01  0.2689E+00
     -5.940  0.1125E+01  0.2965E+00
     -5.915  0.9457E+00  0.3198E+00
     -5.890  0.8366E+00  0.3403E+00
     -5.866  0.7706E+00  0.3593E+00
     -5.841  0.7243E+00  0.3771E+00
     -5.817  0.6895E+00  0.3940E+00
     -5.792  0.6672E+00  0.4104E+00
     -5.768  0.6528E+00  0.4264E+00
     -5.743  0.6331E+00  0.4420E+00
     -5.718  0.6000E+00  0.4567E+00
     -5.694  0.5635E+00  0.4706E+00
     -5.669  0.5431E+00  0.4839E+00
     -5.645  0.5452E+00  0.4973E+00
     -5.620  0.5532E+00  0.5109E+00
     -5.596  0.5432E+00  0.5243E+00
     -5.571  0.5102E+00  0.5368E+00
     -5.546  0.4730E+00  0.5484E+00
     -5.522  0.4550E+00  0.5596E+00
     -5.497  0.4611E+00  0.5709E+00
     -5.473  0.4748E+00  0.5826E+00
     -5.448  0.4768E+00  0.5943E+00
     -5.424  0.4621E+00  0.6057E+00
     -5.399  0.4407E+00  0.6165E+00
     -5.374  0.4248E+00  0.6270E+00
     -5.350  0.4167E+00  0.6372E+00
     -5.325  0.4100E+00  0.6473E+00
     -5.301  0.3999E+00  0.6571E+00
     -5.276  0.3907E+00  0.6667E+00
     -5.252  0.3921E+00  0.6763E+00
     -5.227  0.4065E+00  0.6863E+00
     -5.202  0.4222E+00  0.6967E+00
     -5.178  0.4209E+00  0.7070E+00
     -5.153  0.3941E+00  0.7167E+00
     -5.129  0.3521E+00  0.7254E+00
     -5.104  0.3181E+00  0.7332E+00
     -5.079  0.3127E+00  0.7409E+00
     -5.055  0.3408E+00  0.7493E+00
     -5.030  0.3873E+00  0.7588E+00
     -5.006  0.4228E+00  0.7692E+00
     -4.981  0.4206E+00  0.7795E+00
     -4.957  0.3758E+00  0.7887E+00
     -4.932  0.3122E+00  0.7964E+00
     -4.907  0.2681E+00  0.8030E+00
     -4.883  0.2686E+00  0.8096E+00
     -4.858  0.3095E+00  0.8172E+00
     -4.834  0.3628E+00  0.8261E+00
     -4.809  0.3975E+00  0.8359E+00
     -4.785  0.3961E+00  0.8456E+00
     -4.760  0.3601E+00  0.8545E+00
     -4.735  0.3059E+00  0.8620E+00
     -4.711  0.2594E+00  0.8684E+00
     -4.686  0.2463E+00  0.8744E+00
     -4.662  0.2775E+00  0.8812E+00
     -4.637  0.3365E+00  0.8895E+00
     -4.613  0.3855E+00  0.8990E+00
     -4.588  0.3899E+00  0.9086E+00
     -4.563  0.3457E+00  0.9170E+00
     -4.539  0.2822E+00  0.9240E+00
     -4.514  0.2389E+00  0.9299E+00
     -4.490  0.2374E+00  0.9357E+00
     -4.465  0.2712E+00  0.9424E+00
     -4.441  0.3171E+00  0.9501E+00
     -4.416  0.3530E+00  0.9588E+00
     -4.391  0.3656E+00  0.9678E+00
     -4.367  0.3508E+00  0.9764E+00
     -4.342  0.3118E+00  0.9841E+00
     -4.318  0.2627E+00  0.9905E+00
     -4.293  0.2280E+00  0.9961E+00
     -4.269  0.2319E+00  0.1002E+01
     -4.244  0.2793E+00  0.1009E+01
     -4.219  0.3443E+00  0.1017E+01
     -4.195  0.3832E+00  0.1027E+01
     -4.170  0.3658E+00  0.1036E+01
     -4.146  0.3015E+00  0.1043E+01
     -4.121  0.2344E+00  0.1049E+01
     -4.097  0.2116E+00  0.1054E+01
     -4.072  0.2473E+00  0.1060E+01
     -4.047  0.3135E+00  0.1068E+01
     -4.023  0.3640E+00  0.1077E+01
     -3.998  0.3697E+00  0.1086E+01
     -3.974  0.3390E+00  0.1094E+01
     -3.949  0.3053E+00  0.1102E+01
     -3.925  0.2968E+00  0.1109E+01
     -3.900  0.3134E+00  0.1117E+01
     -3.875  0.3322E+00  0.1125E+01
     -3.851  0.3349E+00  0.1133E+01
     -3.826  0.3288E+00  0.1141E+01
     -3.802  0.3431E+00  0.1149E+01
     -3.777  0.4003E+00  0.1159E+01
     -3.753  0.4888E+00  0.1171E+01
     -3.728  0.5651E+00  0.1185E+01
     -3.703  0.5840E+00  0.1200E+01
     -3.679  0.5329E+00  0.1213E+01
     -3.654  0.4382E+00  0.1223E+01
     -3.630  0.3397E+00  0.1232E+01
     -3.605  0.2609E+00  0.1238E+01
     -3.581  0.1993E+00  0.1243E+01
     -3.556  0.1422E+00  0.1247E+01
     -3.531  0.8616E-01  0.1249E+01
     -3.507  0.4265E-01  0.1250E+01
     -3.482  0.2849E-01  0.1250E+01
     -3.458  0.5195E-01  0.1252E+01
     -3.433  0.1059E+00  0.1254E+01
     -3.409  0.1716E+00  0.1259E+01
     -3.384  0.2289E+00  0.1264E+01
     -3.359  0.2661E+00  0.1271E+01
     -3.335  0.2807E+00  0.1278E+01
     -3.310  0.2737E+00  0.1284E+01
     -3.286  0.2447E+00  0.1290E+01
     -3.261  0.1942E+00  0.1295E+01
     -3.237  0.1285E+00  0.1298E+01
     -3.212  0.6118E-01  0.1300E+01
     -3.187  0.7608E-02  0.1300E+01
     -3.163 -0.1987E-01  0.1299E+01
     -3.138 -0.1248E-01  0.1299E+01
     -3.114  0.3550E-01  0.1300E+01
     -3.089  0.1228E+00  0.1303E+01
     -3.065  0.2337E+00  0.1309E+01
     -3.040  0.3363E+00  0.1317E+01
     -3.015  0.3929E+00  0.1327E+01
     -2.991  0.3807E+00  0.1336E+01
     -2.966  0.3049E+00  0.1344E+01
     -2.942  0.1959E+00  0.1348E+01
     -2.917  0.9065E-01  0.1351E+01
     -2.892  0.1447E-01  0.1351E+01
     -2.868 -0.2502E-01  0.1350E+01
     -2.843 -0.3082E-01  0.1350E+01
     -2.819 -0.6611E-02  0.1349E+01
     -2.794  0.4650E-01  0.1351E+01
     -2.770  0.1251E+00  0.1354E+01
     -2.745  0.2170E+00  0.1359E+01
     -2.720  0.2996E+00  0.1366E+01
     -2.696  0.3476E+00  0.1375E+01
     -2.671  0.3445E+00  0.1383E+01
     -2.647  0.2914E+00  0.1391E+01
     -2.622  0.2085E+00  0.1396E+01
     -2.598  0.1279E+00  0.1399E+01
     -2.573  0.8015E-01  0.1401E+01
     -2.548  0.7930E-01  0.1403E+01
     -2.524  0.1158E+00  0.1406E+01
     -2.499  0.1606E+00  0.1409E+01
     -2.475  0.1805E+00  0.1414E+01
     -2.450  0.1583E+00  0.1418E+01
     -2.426  0.1049E+00  0.1420E+01
     -2.401  0.5714E-01  0.1422E+01
     -2.376  0.6131E-01  0.1423E+01
     -2.352  0.1493E+00  0.1427E+01
     -2.327  0.3176E+00  0.1435E+01
     -2.303  0.5214E+00  0.1448E+01
     -2.278  0.6932E+00  0.1465E+01
     -2.254  0.7788E+00  0.1484E+01
     -2.229  0.7671E+00  0.1503E+01
     -2.204  0.6917E+00  0.1520E+01
     -2.180  0.6052E+00  0.1534E+01
     -2.155  0.5469E+00  0.1548E+01
     -2.131  0.5289E+00  0.1561E+01
     -2.106  0.5410E+00  0.1574E+01
     -2.082  0.5673E+00  0.1588E+01
     -2.057  0.6012E+00  0.1603E+01
     -2.032  0.6575E+00  0.1619E+01
     -2.008  0.7812E+00  0.1638E+01
     -1.983  0.1043E+01  0.1664E+01
     -1.959  0.1507E+01  0.1701E+01
     -1.934  0.2171E+01  0.1754E+01
     -1.910  0.2913E+01  0.1826E+01
     -1.885  0.3507E+01  0.1912E+01
     -1.860  0.3725E+01  0.2004E+01
     -1.836  0.3471E+01  0.2089E+01
     -1.811  0.2847E+01  0.2159E+01
     -1.787  0.2086E+01  0.2210E+01
     -1.762  0.1420E+01  0.2245E+01
     -1.738  0.9721E+00  0.2269E+01
     -1.713  0.7381E+00  0.2287E+01
     -1.688  0.6461E+00  0.2303E+01
     -1.664  0.6187E+00  0.2318E+01
     -1.639  0.6069E+00  0.2333E+01
     -1.615  0.5919E+00  0.2348E+01
     -1.590  0.5738E+00  0.2362E+01
     -1.566  0.5613E+00  0.2375E+01
     -1.541  0.5649E+00  0.2389E+01
     -1.516  0.5897E+00  0.2404E+01
     -1.492  0.6297E+00  0.2419E+01
     -1.467  0.6668E+00  0.2436E+01
     -1.443  0.6791E+00  0.2452E+01
     -1.418  0.6562E+00  0.2469E+01
     -1.394  0.6087E+00  0.2483E+01
     -1.369  0.5630E+00  0.2497E+01
     -1.344  0.5425E+00  0.2511E+01
     -1.320  0.5486E+00  0.2524E+01
     -1.295  0.5556E+00  0.2538E+01
     -1.271  0.5268E+00  0.2551E+01
     -1.246  0.4399E+00  0.2562E+01
     -1.222  0.3048E+00  0.2569E+01
     -1.197  0.1613E+00  0.2573E+01
     -1.172  0.6004E-01  0.2574E+01
     -1.148  0.4028E-01  0.2575E+01
     -1.123  0.1157E+00  0.2578E+01
     -1.099  0.2696E+00  0.2585E+01
     -1.074  0.4577E+00  0.2596E+01
     -1.050  0.6196E+00  0.2611E+01
     -1.025  0.6994E+00  0.2629E+01
     -1.000  0.6701E+00  0.2645E+01
     -0.976  0.5476E+00  0.2659E+01
     -0.951  0.3868E+00  0.2668E+01
     -0.927  0.2572E+00  0.2674E+01
     -0.902  0.2082E+00  0.2679E+01
     -0.878  0.2443E+00  0.2685E+01
     -0.853  0.3230E+00  0.2693E+01
     -0.828  0.3809E+00  0.2703E+01
     -0.804  0.3715E+00  0.2712E+01
     -0.779  0.2894E+00  0.2719E+01
     -0.755  0.1673E+00  0.2723E+01
     -0.730  0.5341E-01  0.2724E+01
     -0.706 -0.1096E-01  0.2724E+01
     -0.681  0.2229E-03  0.2724E+01
     -0.656  0.9539E-01  0.2726E+01
     -0.632  0.2592E+00  0.2733E+01
     -0.607  0.4454E+00  0.2744E+01
     -0.583  0.5861E+00  0.2758E+01
     -0.558  0.6222E+00  0.2774E+01
     -0.533  0.5384E+00  0.2787E+01
     -0.509  0.3731E+00  0.2796E+01
     -0.484  0.1918E+00  0.2801E+01
     -0.460  0.4982E-01  0.2802E+01
     -0.435 -0.2981E-01  0.2801E+01
     -0.411 -0.4935E-01  0.2800E+01
     -0.386 -0.1802E-01  0.2799E+01
     -0.361  0.5768E-01  0.2801E+01
     -0.337  0.1675E+00  0.2805E+01
     -0.312  0.2862E+00  0.2812E+01
     -0.288  0.3746E+00  0.2821E+01
     -0.263  0.3983E+00  0.2831E+01
     -0.239  0.3521E+00  0.2840E+01
     -0.214  0.2659E+00  0.2846E+01
     -0.189  0.1870E+00  0.2851E+01
     -0.165  0.1484E+00  0.2854E+01
     -0.140  0.1504E+00  0.2858E+01
     -0.116  0.1678E+00  0.2862E+01
     -0.091  0.1746E+00  0.2867E+01
     -0.067  0.1663E+00  0.2871E+01
     -0.042  0.1608E+00  0.2875E+01
     -0.017  0.1801E+00  0.2879E+01
      0.007  0.2300E+00  0.2885E+01
      0.032  0.2930E+00  0.2892E+01
      0.056  0.3386E+00  0.2900E+01
      0.081  0.3421E+00  0.2909E+01
      0.105  0.2967E+00  0.2916E+01
      0.130  0.2158E+00  0.2921E+01
      0.155  0.1234E+00  0.2924E+01
      0.179  0.4280E-01  0.2925E+01
      0.204 -0.1067E-01  0.2925E+01
      0.228 -0.2910E-01  0.2924E+01
      0.253 -0.7189E-02  0.2924E+01
      0.277  0.5821E-01  0.2926E+01
      0.302  0.1610E+00  0.2930E+01
      0.327  0.2780E+00  0.2936E+01
      0.351  0.3733E+00  0.2946E+01
      0.376  0.4167E+00  0.2956E+01
      0.400  0.4028E+00  0.2966E+01
      0.425  0.3534E+00  0.2974E+01
      0.449  0.2976E+00  0.2982E+01
      0.474  0.2501E+00  0.2988E+01
      0.499  0.2066E+00  0.2993E+01
      0.523  0.1565E+00  0.2997E+01
      0.548  0.9831E-01  0.2999E+01
      0.572  0.4164E-01  0.3000E+01
      0.597 -0.1630E-03  0.3000E+01
      0.621 -0.1752E-01  0.3000E+01
      0.646 -0.6173E-02  0.3000E+01
      0.671  0.3378E-01  0.3000E+01
      0.695  0.9715E-01  0.3003E+01
      0.720  0.1723E+00  0.3007E+01
      0.744  0.2436E+00  0.3013E+01
      0.769  0.2976E+00  0.3020E+01
      0.793  0.3292E+00  0.3028E+01
      0.818  0.3415E+00  0.3037E+01
      0.843  0.3400E+00  0.3045E+01
      0.867  0.3267E+00  0.3053E+01
      0.892  0.2984E+00  0.3061E+01
      0.916  0.2507E+00  0.3067E+01
      0.941  0.1846E+00  0.3071E+01
      0.965  0.1108E+00  0.3074E+01
      0.990  0.4592E-01  0.3075E+01
      1.015  0.6140E-02  0.3075E+01
      1.039  0.1318E-02  0.3075E+01
      1.064  0.3184E-01  0.3076E+01
      1.088  0.8705E-01  0.3078E+01
      1.113  0.1460E+00  0.3082E+01
      1.137  0.1844E+00  0.3086E+01
      1.162  0.1879E+00  0.3091E+01
      1.187  0.1637E+00  0.3095E+01
      1.211  0.1393E+00  0.3098E+01
      1.236  0.1453E+00  0.3102E+01
      1.260  0.1942E+00  0.3107E+01
      1.285  0.2694E+00  0.3113E+01
      1.309  0.3333E+00  0.3121E+01
      1.334  0.3495E+00  0.3130E+01
      1.359  0.3047E+00  0.3138E+01
      1.383  0.2190E+00  0.3143E+01
      1.408  0.1380E+00  0.3146E+01
      1.432  0.1126E+00  0.3149E+01
      1.457  0.1748E+00  0.3153E+01
      1.481  0.3224E+00  0.3161E+01
      1.506  0.5190E+00  0.3174E+01
      1.531  0.7117E+00  0.3192E+01
      1.555  0.8549E+00  0.3213E+01
      1.580  0.9284E+00  0.3235E+01
      1.604  0.9384E+00  0.3258E+01
      1.629  0.9069E+00  0.3281E+01
      1.654  0.8581E+00  0.3302E+01
      1.678  0.8112E+00  0.3322E+01
      1.703  0.7798E+00  0.3341E+01
      1.727  0.7717E+00  0.3360E+01
      1.752  0.7853E+00  0.3379E+01
      1.776  0.8078E+00  0.3399E+01
      1.801  0.8188E+00  0.3419E+01
      1.826  0.8000E+00  0.3439E+01
      1.850  0.7443E+00  0.3457E+01
      1.875  0.6590E+00  0.3473E+01
      1.899  0.5638E+00  0.3487E+01
      1.924  0.4836E+00  0.3499E+01
      1.948  0.4393E+00  0.3510E+01
      1.973  0.4376E+00  0.3521E+01
      1.998  0.4683E+00  0.3532E+01
      2.022  0.5098E+00  0.3545E+01
      2.047  0.5403E+00  0.3558E+01
      2.071  0.5454E+00  0.3571E+01
      2.096  0.5211E+00  0.3584E+01
      2.120  0.4739E+00  0.3596E+01
      2.145  0.4216E+00  0.3606E+01
      2.170  0.3907E+00  0.3616E+01
      2.194  0.4043E+00  0.3626E+01
      2.219  0.4667E+00  0.3637E+01
      2.243  0.5549E+00  0.3651E+01
      2.268  0.6307E+00  0.3666E+01
      2.292  0.6646E+00  0.3683E+01
      2.317  0.6510E+00  0.3699E+01
      2.342  0.6048E+00  0.3713E+01
      2.366  0.5466E+00  0.3727E+01
      2.391  0.4943E+00  0.3739E+01
      2.415  0.4603E+00  0.3750E+01
      2.440  0.4478E+00  0.3761E+01
      2.464  0.4464E+00  0.3772E+01
      2.489  0.4369E+00  0.3783E+01
      2.514  0.4060E+00  0.3793E+01
      2.538  0.3577E+00  0.3802E+01
      2.563  0.3129E+00  0.3809E+01
      2.587  0.2968E+00  0.3817E+01
      2.612  0.3255E+00  0.3825E+01
      2.636  0.3985E+00  0.3835E+01
      2.661  0.4987E+00  0.3847E+01
      2.686  0.6001E+00  0.3862E+01
      2.710  0.6772E+00  0.3878E+01
      2.735  0.7118E+00  0.3896E+01
      2.759  0.6953E+00  0.3913E+01
      2.784  0.6290E+00  0.3928E+01
      2.808  0.5278E+00  0.3941E+01
      2.833  0.4195E+00  0.3952E+01
      2.858  0.3372E+00  0.3960E+01
      2.882  0.3066E+00  0.3967E+01
      2.907  0.3349E+00  0.3976E+01
      2.931  0.4089E+00  0.3986E+01
      2.956  0.5065E+00  0.3998E+01
      2.980  0.6246E+00  0.4013E+01
      3.005  0.8059E+00  0.4033E+01
      3.030  0.1131E+01  0.4061E+01
      3.054  0.1656E+01  0.4102E+01
      3.079  0.2340E+01  0.4159E+01
      3.103  0.3018E+01  0.4233E+01
      3.128  0.3476E+01  0.4319E+01
      3.152  0.3579E+01  0.4407E+01
      3.177  0.3346E+01  0.4489E+01
      3.202  0.2923E+01  0.4561E+01
      3.226  0.2480E+01  0.4622E+01
      3.251  0.2126E+01  0.4674E+01
      3.275  0.1888E+01  0.4720E+01
      3.300  0.1733E+01  0.4763E+01
      3.324  0.1620E+01  0.4803E+01
      3.349  0.1517E+01  0.4840E+01
      3.374  0.1413E+01  0.4875E+01
      3.398  0.1318E+01  0.4907E+01
      3.423  0.1259E+01  0.4938E+01
      3.447  0.1255E+01  0.4969E+01
      3.472  0.1288E+01  0.5001E+01
      3.496  0.1303E+01  0.5033E+01
      3.521  0.1239E+01  0.5063E+01
      3.546  0.1084E+01  0.5090E+01
      3.570  0.8942E+00  0.5112E+01
      3.595  0.7556E+00  0.5130E+01
      3.619  0.7229E+00  0.5148E+01
      3.644  0.7790E+00  0.5167E+01
      3.668  0.8556E+00  0.5188E+01
      3.693  0.8914E+00  0.5210E+01
      3.718  0.8759E+00  0.5232E+01
      3.742  0.8417E+00  0.5252E+01
      3.767  0.8197E+00  0.5272E+01
      3.791  0.8023E+00  0.5292E+01
      3.816  0.7499E+00  0.5310E+01
      3.840  0.6335E+00  0.5326E+01
      3.865  0.4724E+00  0.5338E+01
      3.890  0.3338E+00  0.5346E+01
      3.914  0.2920E+00  0.5353E+01
      3.939  0.3766E+00  0.5362E+01
      3.963  0.5477E+00  0.5376E+01
      3.988  0.7169E+00  0.5393E+01
      4.013  0.8028E+00  0.5413E+01
      4.037  0.7820E+00  0.5432E+01
      4.062  0.6983E+00  0.5449E+01
      4.086  0.6265E+00  0.5465E+01
      4.111  0.6196E+00  0.5480E+01
      4.135  0.6781E+00  0.5497E+01
      4.160  0.7556E+00  0.5515E+01
      4.185  0.7919E+00  0.5535E+01
      4.209  0.7488E+00  0.5553E+01
      4.234  0.6304E+00  0.5569E+01
      4.258  0.4783E+00  0.5580E+01
      4.283  0.3501E+00  0.5589E+01
      4.307  0.2948E+00  0.5596E+01
      4.332  0.3325E+00  0.5604E+01
      4.357  0.4436E+00  0.5615E+01
      4.381  0.5738E+00  0.5629E+01
      4.406  0.6606E+00  0.5646E+01
      4.430  0.6695E+00  0.5662E+01
      4.455  0.6146E+00  0.5677E+01
      4.479  0.5477E+00  0.5691E+01
      4.504  0.5242E+00  0.5704E+01
      4.529  0.5696E+00  0.5718E+01
      4.553  0.6651E+00  0.5734E+01
      4.578  0.7558E+00  0.5752E+01
      4.602  0.7780E+00  0.5772E+01
      4.627  0.6961E+00  0.5789E+01
      4.651  0.5350E+00  0.5802E+01
      4.676  0.3862E+00  0.5811E+01
      4.701  0.3755E+00  0.5821E+01
      4.725  0.5998E+00  0.5835E+01
      4.750  0.1064E+01  0.5861E+01
      4.774  0.1661E+01  0.5902E+01
      4.799  0.2211E+01  0.5957E+01
      4.823  0.2545E+01  0.6019E+01
      4.848  0.2584E+01  0.6083E+01
      4.873  0.2366E+01  0.6141E+01
      4.897  0.2015E+01  0.6190E+01
      4.922  0.1672E+01  0.6231E+01
      4.946  0.1435E+01  0.6267E+01
      4.971  0.1322E+01  0.6299E+01
      4.995  0.1293E+01  0.6331E+01
      5.020  0.1291E+01  0.6363E+01
      5.045  0.1284E+01  0.6394E+01
      5.069  0.1275E+01  0.6426E+01
      5.094  0.1285E+01  0.6457E+01
      5.118  0.1319E+01  0.6489E+01
      5.143  0.1358E+01  0.6523E+01
      5.167  0.1366E+01  0.6556E+01
      5.192  0.1310E+01  0.6589E+01
      5.217  0.1188E+01  0.6618E+01
      5.241  0.1038E+01  0.6643E+01
      5.266  0.9258E+00  0.6666E+01
      5.290  0.9094E+00  0.6688E+01
      5.315  0.9984E+00  0.6713E+01
      5.339  0.1138E+01  0.6741E+01
      5.364  0.1241E+01  0.6771E+01
      5.389  0.1247E+01  0.6802E+01
      5.413  0.1166E+01  0.6831E+01
      5.438  0.1069E+01  0.6857E+01
      5.462  0.1025E+01  0.6882E+01
      5.487  0.1056E+01  0.6908E+01
      5.511  0.1137E+01  0.6936E+01
      5.536  0.1233E+01  0.6966E+01
      5.561  0.1317E+01  0.6999E+01
      5.585  0.1372E+01  0.7032E+01
      5.610  0.1377E+01  0.7066E+01
      5.634  0.1324E+01  0.7099E+01
      5.659  0.1232E+01  0.7129E+01
      5.683  0.1147E+01  0.7157E+01
      5.708  0.1116E+01  0.7185E+01
      5.733  0.1160E+01  0.7213E+01
      5.757  0.1262E+01  0.7244E+01
      5.782  0.1381E+01  0.7278E+01
      5.806  0.1487E+01  0.7315E+01
      5.831  0.1590E+01  0.7354E+01
      5.855  0.1747E+01  0.7397E+01
      5.880  0.2033E+01  0.7447E+01
      5.905  0.2486E+01  0.7508E+01
      5.929  0.3053E+01  0.7583E+01
      5.954  0.3573E+01  0.7671E+01
      5.978  0.3822E+01  0.7764E+01
      6.003  0.3628E+01  0.7854E+01
      6.027  0.2978E+01  0.7927E+01
      6.052  0.2045E+01  0.7977E+01
      6.077  0.1106E+01  0.8004E+01
      6.101  0.3883E+00  0.8014E+01
      6.126 -0.2018E-01  0.8013E+01
      6.150 -0.1678E+00  0.8009E+01
      6.175 -0.1650E+00  0.8005E+01
      6.199 -0.1103E+00  0.8002E+01
      6.224 -0.5840E-01  0.8001E+01
      6.249 -0.2591E-01  0.8000E+01
      6.273 -0.1040E-01  0.8000E+01
      6.298 -0.5507E-02  0.8000E+01
      6.322 -0.7267E-02  0.8000E+01
      6.347 -0.1477E-01  0.7999E+01
      6.372 -0.2781E-01  0.7999E+01
      6.396 -0.4260E-01  0.7998E+01
      6.421 -0.4705E-01  0.7997E+01
      6.445 -0.1960E-01  0.7996E+01
      6.470  0.6336E-01  0.7998E+01
      6.494  0.2120E+00  0.8003E+01
      6.519  0.4115E+00  0.8013E+01
      6.544  0.6323E+00  0.8028E+01
      6.568  0.8610E+00  0.8050E+01
      6.593  0.1126E+01  0.8077E+01
      6.617  0.1478E+01  0.8114E+01
      6.642  0.1934E+01  0.8161E+01
      6.666  0.2419E+01  0.8221E+01
      6.691  0.2795E+01  0.8289E+01
      6.716  0.2937E+01  0.8361E+01
      6.740  0.2814E+01  0.8431E+01
      6.765  0.2502E+01  0.8492E+01
      6.789  0.2122E+01  0.8544E+01
      6.814  0.1778E+01  0.8588E+01
      6.838  0.1531E+01  0.8625E+01
      6.863  0.1389E+01  0.8660E+01
      6.888  0.1325E+01  0.8692E+01
      6.912  0.1289E+01  0.8724E+01
      6.937  0.1240E+01  0.8754E+01
      6.961  0.1169E+01  0.8783E+01
      6.986  0.1097E+01  0.8810E+01
      7.010  0.1053E+01  0.8836E+01
      7.035  0.1042E+01  0.8862E+01
      7.060  0.1049E+01  0.8887E+01
      7.084  0.1059E+01  0.8913E+01
      7.109  0.1072E+01  0.8940E+01
      7.133  0.1089E+01  0.8966E+01
      7.158  0.1090E+01  0.8993E+01
      7.182  0.1037E+01  0.9019E+01
      7.207  0.9052E+00  0.9041E+01
      7.232  0.7169E+00  0.9059E+01
      7.256  0.5453E+00  0.9072E+01
      7.281  0.4690E+00  0.9084E+01
      7.305  0.5130E+00  0.9096E+01
      7.330  0.6249E+00  0.9111E+01
      7.354  0.7068E+00  0.9129E+01
      7.379  0.6811E+00  0.9146E+01
      7.404  0.5415E+00  0.9159E+01
      7.428  0.3560E+00  0.9168E+01
      7.453  0.2259E+00  0.9173E+01
      7.477  0.2312E+00  0.9179E+01
      7.502  0.3930E+00  0.9189E+01
      7.526  0.6671E+00  0.9205E+01
      7.551  0.9656E+00  0.9229E+01
      7.576  0.1196E+01  0.9258E+01
      7.600  0.1301E+01  0.9290E+01
      7.625  0.1281E+01  0.9321E+01
      7.649  0.1192E+01  0.9351E+01
      7.674  0.1105E+01  0.9378E+01
      7.698  0.1064E+01  0.9404E+01
      7.723  0.1059E+01  0.9430E+01
      7.748  0.1044E+01  0.9456E+01
      7.772  0.9813E+00  0.9480E+01
      7.797  0.8720E+00  0.9501E+01
      7.821  0.7586E+00  0.9520E+01
      7.846  0.6944E+00  0.9537E+01
      7.870  0.7092E+00  0.9554E+01
      7.895  0.7916E+00  0.9574E+01
      7.920  0.8926E+00  0.9596E+01
      7.944  0.9476E+00  0.9619E+01
      7.969  0.9087E+00  0.9641E+01
      7.993  0.7725E+00  0.9660E+01
      8.018  0.5876E+00  0.9675E+01
      8.042  0.4334E+00  0.9685E+01
      8.067  0.3834E+00  0.9695E+01
      8.092  0.4694E+00  0.9706E+01
      8.116  0.6623E+00  0.9723E+01
      8.141  0.8786E+00  0.9744E+01
      8.165  0.1018E+01  0.9769E+01
      8.190  0.1016E+01  0.9794E+01
      8.214  0.8820E+00  0.9816E+01
      8.239  0.6894E+00  0.9833E+01
      8.264  0.5316E+00  0.9846E+01
      8.288  0.4703E+00  0.9858E+01
      8.313  0.5101E+00  0.9870E+01
      8.337  0.6061E+00  0.9885E+01
      8.362  0.6926E+00  0.9902E+01
      8.386  0.7165E+00  0.9920E+01
      8.411  0.6671E+00  0.9936E+01
      8.436  0.5963E+00  0.9951E+01
      8.460  0.6225E+00  0.9966E+01
      8.485  0.8976E+00  0.9988E+01
      8.509  0.1529E+01  0.1003E+02
      8.534  0.2488E+01  0.1009E+02
      8.559  0.3562E+01  0.1017E+02
      8.583  0.4429E+01  0.1028E+02
      8.608  0.4799E+01  0.1040E+02
      8.632  0.4563E+01  0.1051E+02
      8.657  0.3839E+01  0.1061E+02
      8.681  0.2903E+01  0.1068E+02
      8.706  0.2063E+01  0.1073E+02
      8.731  0.1524E+01  0.1077E+02
      8.755  0.1331E+01  0.1080E+02
      8.780  0.1388E+01  0.1083E+02
      8.804  0.1538E+01  0.1087E+02
      8.829  0.1660E+01  0.1091E+02
      8.853  0.1713E+01  0.1095E+02
      8.878  0.1708E+01  0.1100E+02
      8.903  0.1662E+01  0.1104E+02
      8.927  0.1575E+01  0.1108E+02
      8.952  0.1451E+01  0.1111E+02
      8.976  0.1338E+01  0.1114E+02
      9.001  0.1313E+01  0.1118E+02
      9.025  0.1438E+01  0.1121E+02
      9.050  0.1693E+01  0.1125E+02
      9.075  0.1974E+01  0.1130E+02
      9.099  0.2133E+01  0.1135E+02
      9.124  0.2064E+01  0.1141E+02
      9.148  0.1756E+01  0.1145E+02
      9.173  0.1307E+01  0.1148E+02
      9.197  0.8760E+00  0.1150E+02
      9.222  0.6238E+00  0.1152E+02
      9.247  0.6605E+00  0.1153E+02
      9.271  0.1004E+01  0.1156E+02
      9.296  0.1563E+01  0.1160E+02
      9.320  0.2164E+01  0.1165E+02
      9.345  0.2631E+01  0.1171E+02
      9.369  0.2870E+01  0.1179E+02
      9.394  0.2916E+01  0.1186E+02
      9.419  0.2888E+01  0.1193E+02
      9.443  0.2902E+01  0.1200E+02
      9.468  0.2999E+01  0.1207E+02
      9.492  0.3128E+01  0.1215E+02
      9.517  0.3183E+01  0.1223E+02
      9.541  0.3070E+01  0.1230E+02
      9.566  0.2758E+01  0.1237E+02
      9.591  0.2299E+01  0.1243E+02
      9.615  0.1796E+01  0.1247E+02
      9.640  0.1351E+01  0.1250E+02
      9.664  0.1020E+01  0.1253E+02
      9.689  0.8151E+00  0.1255E+02
      9.713  0.7224E+00  0.1257E+02
      9.738  0.7235E+00  0.1259E+02
      9.763  0.7977E+00  0.1261E+02
      9.787  0.9144E+00  0.1263E+02
      9.812  0.1028E+01  0.1265E+02
      9.836  0.1087E+01  0.1268E+02
      9.861  0.1057E+01  0.1271E+02
      9.885  0.9426E+00  0.1273E+02
      9.910  0.7879E+00  0.1275E+02
      9.935  0.6454E+00  0.1276E+02
      9.959  0.5425E+00  0.1278E+02
      9.984  0.4731E+00  0.1279E+02
     10.008  0.4213E+00  0.1280E+02
     10.033  0.3936E+00  0.1281E+02
     10.057  0.4245E+00  0.1282E+02
     10.082  0.5457E+00  0.1283E+02
     10.107  0.7431E+00  0.1285E+02
     10.131  0.9475E+00  0.1287E+02
     10.156  0.1075E+01  0.1290E+02
     10.180  0.1086E+01  0.1293E+02
     10.205  0.1010E+01  0.1295E+02
     10.229  0.9050E+00  0.1297E+02
     10.254  0.8137E+00  0.1299E+02
     10.279  0.7372E+00  0.1301E+02
     10.303  0.6606E+00  0.1303E+02
     10.328  0.5824E+00  0.1304E+02
     10.352  0.5194E+00  0.1306E+02
     10.377  0.4865E+00  0.1307E+02
     10.401  0.4789E+00  0.1308E+02
     10.426  0.4763E+00  0.1309E+02
     10.451  0.4644E+00  0.1310E+02
     10.475  0.4515E+00  0.1311E+02
     10.500  0.4639E+00  0.1313E+02
     10.524  0.5238E+00  0.1314E+02
     10.549  0.6268E+00  0.1315E+02
     10.573  0.7409E+00  0.1317E+02
     10.598  0.8241E+00  0.1319E+02
     10.623  0.8461E+00  0.1321E+02
     10.647  0.7963E+00  0.1323E+02
     10.672  0.6809E+00  0.1325E+02
     10.696  0.5179E+00  0.1326E+02
     10.721  0.3357E+00  0.1327E+02
     10.745  0.1697E+00  0.1327E+02
     10.770  0.5410E-01  0.1328E+02
     10.795  0.1088E-01  0.1328E+02
     10.819  0.4625E-01  0.1328E+02
     10.844  0.1541E+00  0.1328E+02
     10.868  0.3197E+00  0.1329E+02
     10.893  0.5163E+00  0.1330E+02
     10.918  0.7006E+00  0.1332E+02
     10.942  0.8175E+00  0.1334E+02
     10.967  0.8237E+00  0.1336E+02
     10.991  0.7178E+00  0.1338E+02
     11.016  0.5505E+00  0.1339E+02
     11.040  0.3998E+00  0.1340E+02
     11.065  0.3235E+00  0.1341E+02
     11.090  0.3240E+00  0.1342E+02
     11.114  0.3529E+00  0.1342E+02
     11.139  0.3514E+00  0.1343E+02
     11.163  0.2968E+00  0.1344E+02
     11.188  0.2191E+00  0.1345E+02
     11.212  0.1785E+00  0.1345E+02
     11.237  0.2205E+00  0.1346E+02
     11.262  0.3412E+00  0.1346E+02
     11.286  0.4845E+00  0.1348E+02
     11.311  0.5760E+00  0.1349E+02
     11.335  0.5695E+00  0.1350E+02
     11.360  0.4743E+00  0.1352E+02
     11.384  0.3436E+00  0.1352E+02
     11.409  0.2338E+00  0.1353E+02
     11.434  0.1727E+00  0.1353E+02
     11.458  0.1576E+00  0.1354E+02
     11.483  0.1795E+00  0.1354E+02
     11.507  0.2394E+00  0.1355E+02
     11.532  0.3412E+00  0.1356E+02
     11.556  0.4713E+00  0.1357E+02
     11.581  0.5954E+00  0.1358E+02
     11.606  0.6842E+00  0.1360E+02
     11.630  0.7427E+00  0.1362E+02
     11.655  0.8077E+00  0.1364E+02
     11.679  0.9106E+00  0.1366E+02
     11.704  0.1036E+01  0.1369E+02
     11.728  0.1121E+01  0.1371E+02
     11.753  0.1098E+01  0.1374E+02
     11.778  0.9474E+00  0.1376E+02
     11.802  0.7166E+00  0.1378E+02
     11.827  0.4894E+00  0.1379E+02
     11.851  0.3384E+00  0.1380E+02
     11.876  0.2894E+00  0.1381E+02
     11.900  0.3198E+00  0.1382E+02
     11.925  0.3848E+00  0.1383E+02
     11.950  0.4520E+00  0.1384E+02
     11.974  0.5171E+00  0.1385E+02
     11.999  0.5905E+00  0.1386E+02
     12.023  0.6718E+00  0.1388E+02
     12.048  0.7383E+00  0.1390E+02
     12.072  0.7599E+00  0.1392E+02
     12.097  0.7230E+00  0.1394E+02
     12.122  0.6395E+00  0.1395E+02
     12.146  0.5361E+00  0.1396E+02
     12.171  0.4362E+00  0.1397E+02
     12.195  0.3510E+00  0.1398E+02
     12.220  0.2835E+00  0.1399E+02
     12.244  0.2369E+00  0.1400E+02
     12.269  0.2175E+00  0.1400E+02
     12.294  0.2278E+00  0.1401E+02
     12.318  0.2589E+00  0.1401E+02
     12.343  0.2904E+00  0.1402E+02
     12.367  0.3000E+00  0.1403E+02
     12.392  0.2790E+00  0.1403E+02
     12.416  0.2410E+00  0.1404E+02
     12.441  0.2188E+00  0.1405E+02
     12.466  0.2477E+00  0.1405E+02
     12.490  0.3421E+00  0.1406E+02
     12.515  0.4813E+00  0.1407E+02
     12.539  0.6158E+00  0.1409E+02
     12.564  0.6902E+00  0.1410E+02
     12.588  0.6707E+00  0.1412E+02
     12.613  0.5596E+00  0.1413E+02
     12.638  0.3920E+00  0.1414E+02
     12.662  0.2171E+00  0.1415E+02
     12.687  0.7650E-01  0.1415E+02
     12.711 -0.8642E-02  0.1415E+02
     12.736 -0.3635E-01  0.1415E+02
     12.760 -0.1416E-01  0.1415E+02
     12.785  0.4803E-01  0.1415E+02
     12.810  0.1369E+00  0.1415E+02
     12.834  0.2317E+00  0.1416E+02
     12.859  0.3069E+00  0.1417E+02
     12.883  0.3451E+00  0.1418E+02
     12.908  0.3507E+00  0.1418E+02
     12.932  0.3511E+00  0.1419E+02
     12.957  0.3782E+00  0.1420E+02
     12.982  0.4417E+00  0.1421E+02
     13.006  0.5164E+00  0.1423E+02
     13.031  0.5586E+00  0.1424E+02
     13.055  0.5400E+00  0.1425E+02
     13.080  0.4709E+00  0.1426E+02